formula, formation_energy_per_atom, density, band_gap, total_magnetization, k, g, elastic_anisotropy
AlFeO3, -2.522868, 4.238397, 1.651800, 40.003615, 178.338568, 81.530725, 0.081443
BaAl2, -0.198849, 4.079687, 0.000000, 0.000722, 42.325849, 31.751321, 0.000112
Al5Mo, -0.238315, 4.120405, 0.000000, 0.000258, 120.019346, 85.983621, 0.080789
Al2O3, -3.380951, 2.528752, 4.234700, 0.000012, 97.374101, 49.281062, 0.893115
YAlO3, -3.693791, 5.229988, 4.958600, 0.000015, 191.870408, 106.516280, 0.413772
Nb3Al, -0.173775, 7.157298, 0.000000, 0.326479, 161.138959, 22.099813, 0.806514
AlVNi2, -0.387165, 6.672940, 0.000000, 0.000293, 177.202756, 72.229996, 7.254899
AlNi3, -0.387186, 7.448140, 0.000000, 0.000017, 179.989130, 75.382352, -13.781438
Al2O3, -3.378741, 3.910433, 5.441500, 0.000000, 228.003254, 146.245622, 0.157082
AlHO2, -2.597704, 2.920155, 5.019700, 0.000420, 97.314188, 67.188527, 40.100887
MgAlSi, -0.015319, 2.450317, 0.000000, 0.002352, 68.339246, 32.680453, 0.231816
K3AlH6, -0.259849, 1.576950, 1.798800, 0.005842, 20.988862, 10.837302, -5.438384
Ca6Al2NF, -0.965082, 2.272020, 0.000000, 0.367104, 41.094414, 25.293563, 4.308354
AlWO4, -2.632035, 7.336640, 0.000000, 0.000029, 208.756463, 131.777120, 1.131611
Y3Al, -0.185031, 4.455986, 0.000000, 0.035959, 49.332416, 32.846080, 0.203737
Al2Mo3C, -0.175292, 7.184750, 0.000000, 0.005944, 227.280491, 87.131407, 0.607880
Al2O3, -3.373716, 2.967299, 4.205500, 0.000604, 132.023627, 64.326710, 3.050319
Hf5Al3, -0.291670, 9.934060, 0.000000, 0.071869, 111.794046, 48.046466, 0.097386
AlBiO3, -2.500511, 8.296037, 2.977900, 0.001087, 131.410649, 80.999206, 1.638652
Li2AlRh, -0.490767, 4.401299, 0.000000, 0.000010, 80.320177, 40.788084, 1.037419
TaAlO4, -3.346549, 7.082091, 2.585900, 0.000000, 218.273416, 124.207785, 0.744236
AlCrCo2, -0.248139, 7.024895, 0.000000, 2.999777, 203.115259, 105.211407, 1.497784
MnAlPt, -0.636606, 10.322806, 0.000000, 7.062297, 129.523912, 47.273738, 1.888565
Al3Tc, -0.318806, 5.007580, 0.000000, 0.000755, 144.774756, 45.706818, -3.197485
Zr2Al, -0.317706, 5.486265, 0.000000, 0.045123, 100.156636, 44.904055, 0.969436
Mg(AlSi)2, 0.021274, 2.314534, 0.000000, 0.000798, 65.636729, 33.500102, 0.291384
Al2CuO4, -2.653946, 4.444364, 0.000000, 1.999439, 185.445628, 54.732281, 3.040870
Ti2AlO4, -3.170859, 4.236964, 0.000000, 0.001942, 207.937518, 73.988430, 0.085155
NaAlO2, -2.868915, 3.485224, 4.729200, 0.000034, 135.227316, 96.823324, 0.422798
Al2O3, -3.361055, 3.679986, 5.667100, 0.000000, 193.083995, 131.260125, 0.510425
Al4Mo, -0.251616, 4.181840, 0.000000, 0.014355, 111.833029, 75.461071, 0.192881
TaAlO4, -3.334315, 7.083050, 1.838200, 0.000225, 220.280466, 134.856554, 1.368165
AlAgS2, -0.938484, 4.412873, 1.707700, 0.000001, 77.049160, 31.828016, 1.685553
Al2O3, -3.354539, 3.664307, 5.492400, 0.000000, 191.678885, 131.520360, 0.539388
LiAlO2, -3.008295, 3.412034, 4.503900, 0.003888, 161.093009, 132.567478, 0.995374
Al2O3, -3.350097, 3.115101, 4.370000, 0.000376, 119.012247, 63.408767, 1.382389
Ti2MnAl, -0.250024, 4.838887, 0.051100, 0.000174, 20.969784, 59.291510, 1.000094
Ta4AlC3, -0.498286, 12.659086, 0.000000, 0.008522, 237.548776, 146.083043, 0.020045
Al2O3, -3.347809, 3.374396, 4.017300, 0.012765, 168.285653, 87.207579, 2.100008
Al2B2Ru3, -0.471216, 7.891567, 0.000000, 0.000011, 230.257173, 105.990034, 0.324808
AlCrO4, -2.385538, 4.099565, 0.000000, 0.999975, 190.363827, 114.941624, 1.203538
YAl3O6, -3.512929, 3.329436, 4.122000, 0.000000, 67.104540, 42.412884, 3.896889
Al2O3, -3.337809, 3.473694, 4.176500, 0.000000, 182.727776, 85.850733, 0.330490
Mg13Al14, 0.064058, 2.172684, 0.000000, 0.086677, 48.905130, 16.463113, -8.706648
Al2O3, -3.336473, 3.631636, 5.060600, 0.000131, 37.745310, 73.878635, -19.767977
Al2O3, -3.335551, 3.638261, 4.002900, 0.001747, 214.287044, 115.967713, 0.589411
Mg41Al67, 0.068657, 2.301730, 0.000000, 0.449627, 55.179580, 23.510043, 0.388816
Al, 0.092444, 2.682723, 0.000000, 0.000238, 69.300772, 15.358971, -5.144510
Al2W, -0.035498, 8.488352, 0.000000, 0.002035, 160.481957, 55.767007, -9.430094
Al2O3, -3.333195, 3.953069, 5.313200, 0.000092, 230.889117, 147.218949, 0.140853
Al6C3N2, -0.536288, 2.988590, 0.115400, 0.000002, 164.693351, 107.803177, 0.235381
AlFe2, -0.141346, 6.093349, 0.000000, 4.477797, 147.086913, 67.974883, 11.750769
Sc2AlC, -0.439555, 3.024334, 0.000000, 0.017670, 86.246952, 57.011000, 0.336030
AlCoO3, -2.241457, 4.769838, 0.348100, 4.000059, 84.006811, 43.399741, 1.987801
AlPt, -0.931805, 12.479671, 0.000000, 0.000423, 185.402211, 49.419103, 11.149056
Al2O3, -3.315760, 3.573288, 3.299400, 0.000142, 156.145637, 104.073808, 2.127688
AlN, -1.469107, 3.421648, 3.268700, 0.001155, 208.546470, 132.607814, 0.921703
AlSb, -0.138496, 4.478852, 0.428200, 0.027864, 48.893325, 30.457286, 0.005646
Ti3Al, -0.160474, 4.195927, 0.000000, 1.976298, 110.217202, 41.672756, 4.465280
Al2O3, -3.301165, 3.482552, 3.343300, 0.000114, 146.984345, 89.697393, 1.625348
Ti2AlCr, -0.133045, 4.639005, 0.000000, 0.851428, 104.524949, 54.851018, 1.407544
AlCrNi2, -0.262135, 6.728186, 0.000000, 3.210409, 162.123914, 71.884762, -315.382016
Ti2AlV, -0.105511, 4.532631, 0.000000, 1.916288, 118.957839, 43.794704, 2.342597
Al2Cu, -0.023568, 4.004613, 0.000000, 0.000893, 90.214514, 52.266318, 0.526451
AlCr(WO4)2, -2.323593, 5.713669, 1.884500, 5.000079, 87.931869, 44.719255, 5.039527
Ta2Al, -0.075956, 12.115013, 0.000000, 0.005691, 162.100299, 58.206282, 0.769843
AlN, -1.412394, 4.041046, 4.417500, 0.000510, 254.683406, 236.263674, 0.947927
Al3Fe, -0.154065, 4.151307, 0.000000, 0.592796, 125.436303, 54.911027, 0.352264
Al2O3, -3.216493, 1.621807, 4.804100, 0.002997, 73.476072, 6.558764, -1704.454041
AlFe2Ni, -0.094356, 6.944882, 0.000000, 4.243924, 148.217601, 36.648507, -5.124112
Ti2AlCu, -0.056974, 4.930497, 0.000000, 3.758048, 106.872478, 49.771049, 3.168882
Mn4Al(CuO4)3, -1.534256, 5.380760, 0.000000, 9.998159, 130.137983, -49.880015, 2.254196
AlAs, -0.236845, 4.549896, 0.000000, 0.000556, 83.263241, 35.887104, 0.308581
AlFe4(CuO4)3, -1.320952, 5.149338, 0.000000, 19.965424, 180.153809, 24.313722, 1.545923
Al2O3, -3.146101, 4.015040, 4.248700, 0.000000, 204.746738, 45.452524, -4.461341
Ti2AlZn, -0.014344, 4.742171, 0.000000, 3.250132, 96.420029, 30.271780, 85.584982
AlRe, -0.010418, 12.322002, 0.000000, 0.006314, 220.399965, 96.256593, 9.818306
Al(SnO2)2, -1.997497, 5.677913, 0.000000, 0.000065, 131.055890, 49.551869, 0.871479
AlBN2, -1.138244, 3.329718, 3.050100, 0.000000, 258.609047, 185.262213, 0.510132
Ca3Al2O6, -2.861125, 2.985600, 0.000000, 0.004284, 91.923841, 41.602695, 0.008102
AlP, 0.058483, 0.528386, 2.163400, 0.000002, 16.676054, 6.921418, -196.347420
Al2O3, -2.626586, 2.715293, 0.608300, 0.000001, 88.616592, 58.887684, 3.087789
AlVNi, 0.375342, 4.900114, 0.000000, 0.005225, 106.599359, -3.081863, -4.967636
Ti2Al, 0.572490, 3.244297, 0.000000, 2.995355, 70.762272, -5.477107, 0.493005
ZrAlW, 0.719548, 7.781616, 0.000000, 0.027863, 100.229745, -12.066747, -5.890312
TaTiAl, 0.811271, 6.642861, 0.000000, 1.907301, 86.398968, -15.523589, 0.217482
AlO, -1.552116, 3.182442, 0.000000, 0.002912, 134.408741, -12.674864, 0.094037
Al2O, -0.141535, 2.520649, 0.000000, 0.003327, 59.314484, -66.975540, 0.134836