formula, formation_energy_per_atom, density, band_gap, total_magnetization, k, g, elastic_anisotropy
Sc2AlOs, -0.480399, 7.168696, 0.000000, 0.000463, 125.328128, 52.265281, 1.504282
Sc2AlSi2, -0.679050, 3.290025, 0.000000, 0.003051, 101.635488, 76.141388, 0.260850
Sc2AlTc, -0.370827, 4.909928, 0.000000, 0.000869, 108.061105, 45.199400, 0.977239
Sc2AlZn, -0.424914, 3.938288, 0.000000, 0.001600, 76.136493, 55.576812, 2.797865
Sc3Al, -0.268877, 3.083513, 0.000000, 1.960481, 64.213252, 41.766526, 0.088274
Sc3AlC, -0.594601, 3.142636, 0.000000, 0.000135, 101.734241, 82.933630, 0.014949
ScAl, -0.446749, 3.099620, 0.000000, 0.001492, 78.187794, 58.094274, 7.012329
ScAl2, -0.486889, 3.009750, 0.000000, 0.002839, 87.805711, 69.321384, 0.013737
ScAl2Ni, -0.656923, 4.089561, 0.000000, 0.000564, 107.119312, 67.381880, 0.553748
ScAl3, -0.454931, 3.017273, 0.000000, 0.000187, 84.292536, 70.520831, 0.000313
ScAlAg2, -0.332717, 6.595297, 0.000000, 0.002086, 96.501038, 35.235720, 6.463644
ScAlAu2, -0.705044, 10.724740, 0.000000, 0.001618, 113.866191, 25.223936, 1.104021
ScAlCo2, -0.515428, 5.881791, 0.000000, 0.000570, 147.510920, 91.325214, 0.007609
ScAlCu2, -0.412943, 5.545314, 0.000000, 0.000076, 107.849811, 49.539594, 1.233053
ScAlIr2, -1.009157, 12.424466, 0.000000, 0.000212, 194.320729, 106.957987, 0.000989
ScAlNi2, -0.627430, 5.675439, 0.000000, 0.000037, 132.863250, 58.161045, 0.302836
ScAlPd2, -0.950400, 7.241820, 0.000000, 0.000920, 130.558593, 42.131729, 0.266967
ScAlRh2, -1.089974, 7.590063, 0.000000, 0.000024, 163.366414, 83.899796, 0.020253
SmAlO3, -3.697795, 6.961197, 4.861400, 0.000000, 182.449433, 111.581618, 0.197344
Sr(AlSi)2, -0.267150, 2.877425, 0.000000, 0.003291, 59.499050, 39.585054, 0.349081
Sr(AlTe2)2, -1.075739, 4.521576, 1.445400, 0.000018, 23.750156, 14.953820, 0.802954
Sr3(AlGe)2, -0.495700, 3.825313, 0.000000, 0.000577, 41.008997, 30.155500, 0.180578
Sr3(AlGe2)2, -0.501175, 4.466918, 0.000000, 0.000494, 46.425253, 33.257236, 0.661876
Sr3(AlN2)2, -1.164128, 4.289650, 2.127500, 0.000529, 86.936631, 47.576478, 0.551276
Sr3(AlSi)2, -0.379843, 3.159108, 0.000000, 0.002484, 43.661681, 31.523490, 0.185665
Sr3Al3N5, -1.242142, 4.163284, 2.193400, 0.001013, 104.606400, 57.758158, 1.225133
SrAl2O4, -3.459254, 3.442440, 4.142000, 0.001118, 82.094417, 45.801647, 0.135961
SrAl4, -0.232307, 2.897180, 0.000000, 0.000203, 53.958848, 30.583211, 0.203623
SrAl9Co2, -0.402806, 3.512871, 0.000000, 0.018270, 82.738489, 60.100424, 0.092419
SrAlGe, -0.470386, 4.020471, 0.000000, 0.003694, 49.256625, 35.107863, 0.252915
SrAlSi, -0.375330, 3.162717, 0.000000, 0.001538, 55.822115, 39.509541, 0.327126
SrAlSiH, -0.459977, 3.102445, 0.625700, 0.000015, 56.597306, 43.026642, 0.978251
Ta2AlC, -0.524178, 11.450463, 0.000000, 0.003638, 193.570041, 123.515606, 0.145762
Ta3AlC2, -0.568923, 12.251033, 0.000000, 0.000476, 225.015613, 159.856617, 0.029926
TaAl3, -0.318202, 6.813776, 0.000000, 0.000035, 132.819246, 105.333134, 0.177489
TaAlCo2, -0.479382, 10.241166, 0.000000, 1.986369, 202.787539, 101.630293, 0.396796
TaAlFe2, -0.452632, 10.237692, 0.324200, 0.000076, 221.804615, 137.128378, 0.000085
TaAlOs2, -0.551588, 16.169055, 0.000000, 0.000606, 271.900102, 143.415255, 0.001795
TaAlRu2, -0.747777, 11.461135, 0.000000, 0.008594, 239.196857, 131.385711, 0.009367
TaMn2Al, -0.303427, 9.781667, 0.000000, 1.998412, 200.871365, 109.826307, 0.287866
Ti2AlC, -0.700269, 3.993101, 0.000000, 0.002819, 137.139159, 112.548969, 0.021805
Ti2AlMo, -0.322695, 5.652812, 0.000000, 0.001775, 150.078711, 46.615388, 1.096641
Ti2AlN, -1.260450, 4.264332, 0.000000, 0.025317, 155.365200, 115.424783, 0.055288
Ti2AlRe, -0.439678, 8.247571, 0.000000, 0.000905, 171.837294, 77.340976, 0.850481
Ti2AlTc, -0.460623, 5.893566, 0.000000, 0.000125, 158.257685, 62.635385, 0.521496
Ti3Al, -0.279157, 4.248869, 0.000000, 0.013606, 115.313999, 61.823321, 0.128450
Ti3AlC, -0.592440, 4.148161, 0.000000, 0.001581, 152.909427, 102.829307, 0.222246
Ti3AlC2, -0.762641, 4.207863, 0.000000, 0.006409, 159.141303, 126.433535, 0.053082
TiAl, -0.406945, 3.833902, 0.000000, 0.003174, 115.060567, 75.741937, 0.976299
TiAl2, -0.429277, 3.536391, 0.000000, 0.000269, 108.559960, 82.808434, 0.085467
TiAl3, -0.397540, 3.365706, 0.000000, 0.001122, 107.534884, 91.919909, 0.395549
TiAlAu, -0.497712, 9.082770, 0.000000, 0.917215, 131.427628, 58.551517, 0.215505
TiAlCo2, -0.624942, 6.450358, 0.000000, 0.999497, 177.697025, 93.940625, 0.454971
TiAlCu2, -0.304975, 6.143752, 0.000000, 0.000107, 134.464421, 72.062681, 1.876996
TiAlFe2, -0.454173, 6.253070, 0.000000, 0.969169, 184.560467, 105.699162, 0.074079
TiAlNi2, -0.623057, 6.253223, 0.000000, 0.000130, 161.852469, 67.692575, 1.721780
TiAlOs2, -0.583849, 13.175581, 0.000000, 0.002673, 243.878999, 108.554605, 0.437304
TiAlPd2, -0.761024, 7.796984, 0.000000, 0.000479, 165.875563, 40.701388, 5.113665
TiAlPt, -0.915318, 9.656845, 0.000000, 0.004354, 163.899534, 56.664121, 1.824148
TiAlRh2, -0.983010, 8.099627, 0.000000, 0.002260, 193.194411, 48.831783, -9.609487
TiAlRu2, -0.765483, 8.111432, 0.000000, 0.001774, 208.794099, 86.563841, 0.022840
TiMn2Al, -0.335620, 5.794349, 0.000000, 3.001410, 156.506354, 86.065035, 0.172822
Y(Al2Cu)4, -0.311429, 4.660832, 0.000000, 0.003797, 100.804085, 60.377139, 0.035796
Y(Al2Fe)4, -0.432564, 4.612206, 0.000000, 5.440891, 123.098793, 86.393929, 0.168890
Y(AlGe)2, -0.418217, 4.532041, 0.000000, 0.004041, 71.420447, 38.510199, 1.393774
Y2(Al3Co)3, -0.564762, 4.474173, 0.000000, 0.000194, 110.593223, 76.189540, 0.073761
Y2Al, -0.314702, 4.241096, 0.000000, 0.003696, 55.031156, 30.554872, 0.327841
Y2Al3Si2, -0.533446, 3.887422, 0.000000, 0.003785, 86.289069, 65.845813, 0.192301
Y2AlSi2, -0.708858, 4.204300, 0.000000, 0.000577, 87.572482, 54.632298, 1.809925
Y2AlZn, -0.406523, 4.800594, 0.000000, 0.001186, 62.508076, 44.243636, 0.982360
Y2MgAl, -0.299468, 3.802880, 0.000000, 0.004213, 54.958090, 41.411389, 1.776759
Y3Al7Cu2, -0.504053, 4.345998, 0.000000, 0.005060, 88.081280, 63.101814, 0.029253
Y3AlC, -0.418434, 4.327412, 0.000000, 0.000156, 79.646704, 63.520770, 0.022033
YAl2, -0.531332, 3.879200, 0.000000, 0.023182, 79.609959, 60.811955, 0.048304
YAl2Co, -0.543369, 4.694792, 0.000000, 0.003299, 92.547356, 49.052763, 0.927809
YAl2Ni, -0.646908, 4.672976, 0.000000, 0.000027, 92.599409, 59.475492, 0.447211
YAl3, -0.437870, 3.572403, 0.000000, 0.007364, 72.582139, 46.059737, 1.949108
YAl3Ni, -0.599071, 4.314691, 0.000000, 0.001865, 92.900004, 61.006193, 0.221481
YAl3Ni2, -0.660814, 4.984204, 0.000000, 0.003574, 113.280235, 68.517831, 0.066741
YAl4Ni, -0.557000, 4.084858, 0.000000, 0.001035, 92.585145, 60.688519, 0.281432
YAlGe, -0.665102, 5.073595, 0.000000, 0.000075, 80.029166, 56.040603, 0.343116
YAlNi, -0.600981, 5.292877, 0.000000, 0.000485, 93.209842, 37.308132, 7.567666
YAlSi, -0.607703, 4.037915, 0.000000, 0.000207, 88.495701, 64.062793, 0.244709
YMgAl, -0.331942, 3.262014, 0.000000, 0.001349, 57.462489, 45.271708, 0.317423
Yb(AlSi)2, -0.287425, 4.473834, 0.000000, 0.000005, 64.785784, 43.276907, 0.287486
Zr2Al3, -0.521393, 4.650766, 0.000000, 0.012627, 107.903844, 69.978318, 0.163899
Zr3Al, -0.302307, 5.913585, 0.000000, 0.001106, 100.980519, 58.182124, 0.620031
Zr4Al3, -0.460248, 5.301739, 0.000000, 0.000485, 108.146498, 77.410251, 0.055693
Zr6Al2Co, -0.342892, 5.999278, 0.000000, 0.006697, 106.517281, 50.965764, 0.008855
ZrAl2, -0.537820, 4.520876, 0.000000, 0.001189, 113.498882, 87.670914, 0.029141
ZrAl3, -0.486943, 4.086082, 0.000000, 0.001345, 102.997325, 83.112461, 0.058562
ZrAl5Ni2, -0.590542, 4.838725, 0.000000, 0.001589, 120.377823, 84.260138, 0.085492
ZrAlAu2, -0.534098, 11.495692, 0.000000, 0.000387, 134.573652, 23.269764, 14.711881
ZrAlCo2, -0.520960, 6.969839, 0.000000, 1.001961, 160.927983, 78.520405, 0.040760
ZrAlNi, -0.644718, 6.078614, 0.000000, 0.000602, 138.353214, 75.587238, 0.685698
ZrAlNi2, -0.598051, 6.799141, 0.000000, 0.027234, 148.561948, 39.401129, 0.001867
ZrAlPd2, -0.803115, 8.143436, 0.000000, 0.000398, 147.492869, 15.666429, 0.676681
AlCuO2, -2.417172, 4.964065, 1.814800, 0.000073, 176.858753, 94.422681, 2.285522
Al3Pd5, -0.851622, 8.614227, 0.000000, 0.000601, 155.639112, 52.388812, 0.601263
RbAlF4, -3.638525, 3.590353, 6.944200, 0.000000, 41.983825, 32.061857, 1.277556
AlCuPd2, -0.623045, 9.053517, 0.000000, 0.000142, 152.291102, 45.048522, -11.210537
LiAlSiO4, -3.209992, 2.271590, 5.548900, 0.000000, 113.689175, 47.511494, 0.482997
AlF3, -3.869712, 2.891780, 7.420300, 0.000138, 126.480338, 83.922435, 0.953311
Mg23Al30, -0.023268, 2.220291, 0.000000, 0.002781, 55.739728, 18.907428, 0.115478
Ca3Al2(SiO4)3, -3.445633, 3.489873, 4.867300, 0.000137, 154.207240, 97.000657, 0.011708
RbAlF4, -3.637837, 3.545332, 6.877200, 0.000862, 57.985190, 33.181143, 1.953194
AlTlF4, -3.282419, 5.804587, 4.257600, 0.001048, 44.861290, 27.148171, 3.688206
AlPt2, -0.852556, 15.394056, 0.000000, 0.000093, 206.529033, 87.284208, 0.267013
SrAl2, -0.260182, 3.122948, 0.000000, 0.000693, 44.830671, 34.473483, 0.264270
Al4W, -0.152550, 5.975827, 0.000000, 0.000069, 116.987578, 78.922800, 0.212852
AlFe3, -0.197072, 6.813014, 0.000000, 5.866317, 175.122470, 96.729062, 3.567277
AlTlF4, -3.281665, 5.761776, 4.249200, 0.000000, 61.212523, 30.508194, 3.004748
CaAl4, -0.194790, 2.311699, 0.000000, 0.000889, 57.686976, 28.640424, 0.323813
CaAl2(SiO4)2, -3.424326, 2.677596, 4.812200, 0.000000, 85.843940, 43.531070, 0.737132
AlBPbO4, -2.718047, 6.104435, 3.080500, 0.000747, 84.500283, 56.690509, 2.935775
TiAl2, -0.427095, 3.534126, 0.000000, 0.002507, 108.184756, 82.168566, 0.146808
Hf2Al3, -0.425844, 7.972095, 0.000000, 0.000707, 113.949134, 69.331733, 0.367033
CaAl2O4, -3.452869, 2.901042, 4.390900, 0.000000, 79.196024, 45.231683, 0.562898
AlPO4, -3.118336, 2.151344, 5.475000, 0.000000, 9.457522, 33.930319, 1.218440
Al6Fe, -0.195846, 3.428138, 0.000000, 0.018080, 106.206378, 58.009805, 0.456370
CaAlSi, -0.362589, 2.366589, 0.000000, 0.112325, 61.176823, 39.356220, 0.491267
AlPO4, -3.117695, 2.083874, 5.487800, 0.000000, 21.096808, 25.345766, 0.629132
ZrAlCu2, -0.352946, 6.674112, 0.000000, 0.000140, 128.440287, 53.008696, 0.493151
TiAlAu2, -0.440910, 11.513779, 0.000000, 0.000871, 140.799006, 38.605345, 10.673736
YAlPd, -0.880234, 6.101196, 0.000000, 0.000529, 94.164840, 32.665703, 10.473826
Y3Al2, -0.354527, 4.092630, 0.000000, 0.070671, 58.521425, 33.408950, 0.125517
YAl3, -0.433944, 3.599968, 0.000000, 0.000301, 73.332479, 51.742470, 0.386758
CaAlSi, -0.361188, 2.355991, 0.000000, 0.003329, 62.352644, 40.685874, 0.429723
Ba(AlGe)2, -0.392345, 4.638609, 0.000000, 0.000008, 46.948102, 16.845650, 4.925564
Sr3(AlSn)2, -0.500925, 4.086254, 0.000000, 0.003716, 36.905044, 25.492162, 0.224020
BaAl9Ni2, -0.361069, 3.790139, 0.000000, 0.004453, 78.625020, 46.947756, 0.225509
AlP, -0.605153, 2.306797, 1.953300, 0.000000, 82.894700, 46.813454, 0.183028
YAl, -0.418347, 3.879845, 0.000000, 0.505591, 64.235333, 42.840342, 3.155221
AlPS4, -0.919403, 1.651640, 2.614100, 0.000000, 12.120949, 6.950162, 34.048449
Al2CoOs, -0.511446, 9.731907, 0.000000, 0.000771, 200.255056, 110.344670, 0.163092
YAlAg2, -0.339647, 6.820163, 0.000000, 0.002506, 84.204323, 19.524660, 0.809357
Li9Al4, -0.144831, 1.307434, 0.000000, 0.000929, 31.761050, 31.185813, 2.556065
CeAlO3, -3.615510, 6.542648, 0.000000, 2.000610, 189.333450, 94.558136, 0.137593
MnAlPt2, -0.688134, 13.142004, 0.000000, 4.106833, 178.507089, 38.442847, -6.974590
SrAl2O4, -3.453297, 3.433796, 4.574200, 0.000984, 80.521755, 42.099030, 0.102497
Al6Re, -0.205807, 5.051143, 0.000000, 0.004055, 112.764240, 71.423016, 0.187593
Ca3(AlGe)2, -0.511948, 3.018056, 0.000000, 0.004598, 47.686663, 34.250249, 0.264157
Nb4AlC3, -0.519724, 6.848878, 0.000000, 0.001113, 216.415921, 145.997700, 0.057401
CaAl9Co2, -0.378272, 3.197264, 0.000000, 0.019444, 84.734060, 56.347104, 0.090428
Al3Fe2Si3, -0.321342, 4.292780, 0.000000, 0.221007, 144.703440, 91.374929, 0.287378
AlAs, -0.478220, 3.590982, 1.687000, 0.000930, 67.372101, 39.886832, 0.203933
Mg(AlC)2, -0.062730, 2.929438, 1.748100, 0.001035, 137.295001, 104.604335, 1.844378
Ba3(AlSn)2, -0.510477, 4.584363, 0.000000, 0.007964, 31.211565, 20.334436, 0.327603
SrAl2, -0.254258, 3.302373, 0.000000, 0.001137, 48.411681, 36.805463, 0.000126
NbAlNi2, -0.430927, 7.312635, 0.000000, 0.002365, 180.578611, 55.694174, 3.206002
AlCu3, -0.181494, 7.301686, 0.000000, 0.000538, 128.684206, 44.152510, -10.071100
YAl, -0.414904, 4.104683, 0.000000, 0.000280, 64.877071, 44.122318, 3.749081
AlSb, -0.247204, 4.079590, 0.917900, 0.001644, 49.159774, 28.804390, 0.206029
KAlTe2, -0.996140, 3.968484, 1.703700, 0.001072, 17.012288, 11.467255, 0.720814
Al6Tc, -0.272195, 3.794006, 0.000000, 0.001622, 107.489743, 68.839834, 0.202308
Ba(AlSi)2, -0.260675, 3.580227, 0.000000, 0.000103, 48.072359, 27.011984, 2.811914
HfAl3, -0.386553, 6.195578, 0.000000, 0.003457, 106.870517, 87.325156, 0.485805
CaAl2O4, -3.446381, 2.839015, 4.190300, 0.000215, 78.579302, 42.735805, 0.237233
Ba(AlTe2)2, -1.131517, 4.576344, 1.504700, 0.000872, 21.944668, 13.205690, 0.407539
Al3Mo, -0.321391, 4.822354, 0.000000, 0.001033, 136.068197, 100.101320, 0.300455
AlPd, -0.904822, 7.539752, 0.000000, 0.003334, 150.343010, 66.575442, 0.394314
AlPO4, -3.111593, 2.459023, 5.617700, 0.001019, 29.612093, 35.706924, 0.526142
Al2O3, -3.417170, 3.509944, 4.455300, 0.000000, 187.060591, 108.261850, 0.817141
Zr6Al2Fe, -0.302352, 5.979509, 0.000000, 0.528669, 104.600796, 47.881827, 0.004422
Al2Fe3Si4, -0.398398, 4.934230, 0.000000, 0.000563, 173.137010, 109.757294, 0.114545
AlB2, -0.042987, 3.147666, 0.000000, 0.000017, 190.529041, 153.134925, 4.520156
AlFeF5, -3.312346, 3.420993, 4.258400, 4.000255, 103.668501, 56.369250, 2.619271
Ti7Al2O15, -3.394625, 4.066014, 0.000000, 3.302170, 197.604971, 89.205646, 0.332874
AlTlSe2, -0.980669, 5.885181, 0.587300, 0.001467, 26.258317, 14.607555, 1.033628
AlPO4, -3.110136, 1.884749, 5.323200, 0.000000, 121.362850, 39.763693, 0.227142
AlGa3N4, -0.877397, 5.299635, 2.180800, 0.000340, 177.614051, 116.974768, 1.011100
Y(Al2Cr)4, -0.214618, 4.236139, 0.000000, 2.819562, 119.593671, 79.746446, 0.216111
Al12Mo, -0.119413, 3.195666, 0.000000, 0.004903, 91.419394, 57.009932, 0.001296
Y4Al2O9, -3.805015, 4.383510, 4.210100, 0.000754, 132.533800, 64.666638, 0.057872
AlV4C3, -0.506118, 5.249447, 0.000000, 0.010709, 219.469987, 166.641868, 0.024378
GdAlO3, -3.690450, 7.235659, 3.238200, 28.006034, 186.015705, 110.663378, 0.231183
AlPt3, -0.680620, 16.841278, 0.000000, 0.003044, 225.230461, 93.171099, 0.221167
AlAuO2, -2.224651, 9.213030, 0.588800, 0.000021, 174.890342, 84.769549, 2.126630
Al2Cu, -0.165535, 4.382045, 0.000000, 0.000113, 99.386015, 42.966475, 0.735159
HfAl, -0.395528, 8.963278, 0.000000, 0.000569, 117.173223, 78.115902, 0.512254
Na3AlF6, -3.382048, 2.788722, 6.556400, 0.000000, 49.809964, 27.519533, 0.357008
DyAlO3, -3.748274, 7.547276, 5.723000, 0.000000, 193.212118, 115.228196, 0.228861
YAl3, -0.424922, 3.642540, 0.000000, 0.000105, 76.317446, 62.637986, 0.000422
KAlF4, -3.640183, 2.859642, 6.937700, 0.000000, 46.387137, 29.715695, 15.877913
TiAl2O5, -3.441487, 3.609658, 2.943400, 0.000025, 185.955971, 96.474516, 0.333834
Zr2AlC, -0.643925, 5.238953, 0.000000, 0.000479, 124.173066, 90.072535, 0.033373
TaAlNi2, -0.457946, 10.109650, 0.000000, 0.000121, 191.537497, 62.890688, 2.089891
NaAlSe2, -1.251100, 3.643191, 2.149800, 0.000285, 29.386348, 15.472607, -42.360546
AlGaN2, -1.105076, 4.630280, 2.664200, 0.000000, 184.172800, 122.362633, 1.057616
LiAlO2, -3.067125, 3.295159, 5.884900, 0.000008, 147.123844, 116.333321, 1.413837
Ti3AlN, -1.017868, 4.351485, 0.000000, 0.004625, 163.271039, 47.665003, 0.667806
Zr6Al2Ni, -0.346558, 5.959994, 0.000000, 0.008930, 104.883463, 51.421746, 0.010573
CaAl2SiO6, -3.428255, 3.319303, 5.047000, 0.000833, 130.572728, 73.604627, 0.613495
Al2O3, -3.409664, 3.657878, 4.827400, 0.000000, 201.946041, 104.219909, 0.167384
AlCrFe2, -0.164222, 6.949494, 0.000000, 0.997566, 239.460242, 102.052674, 0.596619
Al3Os2, -0.488636, 10.981230, 0.000000, 0.029181, 203.418745, 113.996143, 0.052051
KAlF4, -3.635954, 2.777231, 6.792900, 0.000000, 59.090468, 30.078739, 83.251941
Zr2Al, -0.358074, 5.595350, 0.000000, 0.000007, 103.369302, 53.677900, 0.160277
Sc2AlRu, -0.529614, 5.046351, 0.000000, 0.000222, 111.011428, 40.632473, 1.088300
CeAlO3, -3.602373, 6.580870, 0.000000, 1.013931, 190.884817, 107.341085, 0.989883
YAlO3, -3.720762, 5.187110, 5.540200, 0.000000, 190.533113, 113.898180, 0.233012
Zr2AlN, -1.167426, 5.580413, 0.000000, 0.000786, 141.879310, 94.423230, 0.054022
AlOs, -0.400839, 13.121639, 0.000000, 0.002053, 236.317899, 122.466444, 0.400520
AlCo3C, -0.223613, 6.944422, 0.000000, 0.000151, 234.454510, 121.207527, 0.420936
Mg(AlSe2)2, -1.222293, 3.579238, 1.053000, 0.002878, 24.816894, 14.531393, 22.372120
Ca2Al2SiO7, -3.443059, 2.977142, 4.284800, 0.000021, 103.944566, 54.919194, 0.471374
AlN, -1.563053, 3.192882, 3.305600, 0.000238, 194.667214, 134.359574, 1.259634
LiAl3, -0.080193, 2.229478, 0.000000, 0.001706, 63.097736, 34.700278, 0.195948
Y(AlSi)2, -0.351003, 3.267732, 0.000000, 0.006945, 77.003403, 43.569111, 0.831978
ZrAl, -0.463168, 4.961627, 0.000000, 0.001356, 108.675785, 72.065768, 0.711774
ZrAl3, -0.464341, 4.127421, 0.000000, 0.014688, 100.287279, 63.826765, 0.034013
Al2NiO4, -2.779106, 4.298874, 3.120000, 0.000036, 136.128500, -46.762687, -6.458659
AlP(H2O3)2, -2.177512, 2.522072, 5.423900, 0.000852, 73.493562, 49.061508, 0.167503
Na4Al3(SiO4)3, -2.999709, 2.079196, 0.261900, 1.952103, 27.863366, 29.065842, 0.155976
Al2FeNi, -0.499212, 5.904564, 0.000000, 0.224700, 167.534014, 102.303615, 0.871935
TiAl3, -0.373044, 3.403083, 0.000000, 0.000890, 105.798346, 69.029986, 0.030330
La8MgAl7O24, -3.630538, 6.290277, 0.000000, 0.000745, 184.220356, 101.718572, 0.253282
AlCu3, -0.164554, 7.268639, 0.000000, 0.000498, 130.547096, 64.630855, 7.129504
Mn2AlCo, -0.278881, 6.868235, 0.000000, 1.997458, 158.802321, 111.253031, 0.754408
Ca3(AlSi)2, -0.400621, 2.226697, 0.000000, 0.000234, 51.113240, 36.111596, 0.279722
ScAlO3, -3.669622, 4.169315, 4.591900, 0.000233, 208.819690, 118.546313, 0.220473
AlTlO2, -2.431645, 6.618871, 2.197000, 0.000084, 99.580741, 42.453298, 3.288468
Mg(AlS2)2, -1.447815, 2.213516, 1.837200, 0.001406, 30.830809, 18.592728, 20.855366
MnAlPd2, -0.593034, 8.265038, 0.000000, 4.035224, 141.404479, 49.595850, 8.780753
Sr(AlH)2, -0.366361, 2.837524, 0.000000, 0.000015, 45.273640, 38.189458, 0.755907
Al2O3, -3.394141, 3.575539, 4.141600, 0.000000, 197.258018, 118.997294, 0.789733
AlBO3, -3.118358, 3.497216, 5.839200, 0.000218, 210.349527, 141.269403, 0.471289
Al3Cu2, -0.158314, 4.630632, 0.000000, 0.003471, 102.141420, 53.312550, 2.231484
Mg(AlH4)2, -0.148527, 1.000495, 4.346400, 0.000093, 15.606757, 8.279900, 2.144155
AlHO2, -2.611743, 3.423456, 5.657200, 0.000046, 157.583248, 133.661657, 0.110372
AlInO3, -2.677147, 5.613716, 2.162000, 0.000186, 184.266701, 89.940136, 0.201583
Al2O3, -3.391416, 3.574528, 4.069800, 0.000000, 197.357591, 118.797195, 0.776731
Hf3Al2, -0.330563, 9.889704, 0.000000, 0.313634, 115.004383, 66.605297, 0.461004
AlFe2Mo, -0.176040, 7.741151, 0.000000, 0.875380, 225.310105, 83.863580, 1.831505
AlPd, -0.875437, 7.599549, 0.000000, 0.001311, 156.423388, 58.527503, 1.420365
Zr2Al4C5, -0.348177, 4.336534, 0.000000, 0.000130, 183.075346, 127.752795, 0.039714
UAl2, -0.159625, 8.427796, 0.000000, 5.377754, 82.811555, 25.015613, -16.888279
MnAlCu2, -0.130838, 6.685943, 0.000000, 3.502564, 123.796328, 66.152235, 9.125891
Al5Mo, -0.242579, 4.122877, 0.000000, 0.000340, 120.859437, 94.644205, 0.035132
Al2Pd, -0.617258, 5.071368, 0.000000, 0.000152, 112.446752, 30.983048, 0.185297
EuAlO3, -3.323593, 7.023941, 0.000000, 23.999003, 175.282291, 107.010168, 0.174779
Li3Al, -0.079682, 1.178288, 0.000000, 0.001277, 26.632568, 18.736853, 0.222829
Hf2Al, -0.262791, 10.396284, 0.000000, 0.004657, 113.362671, 57.321541, 0.338669
Al3Cu, -0.089984, 4.022426, 0.000000, 0.000045, 93.505203, 50.184032, 0.348506